variables=x[mm],y[mm],z[mm],dummy
  zone i=         151 j=         222 k=           1 f=point
 -1.0000000000E+02  0.0000000000E+00  0.0000000000E+00  1.0000000000E+00
 -9.8000000000E+01  0.0000000000E+00  0.0000000000E+00  1.0000000000E+00
 -9.5987950197E+01  0.0000000000E+00  0.0000000000E+00  1.0000000000E+00
 -9.3965969167E+01  0.0000000000E+00  0.0000000000E+00  1.0000000000E+00
 -9.1936218344E+01  0.0000000000E+00  0.0000000000E+00  1.0000000000E+00
 -8.9900892911E+01  0.0000000000E+00  0.0000000000E+00  1.0000000000E+00
 -8.7862212387E+01  0.0000000000E+00  0.0000000000E+00  1.0000000000E+00
 -8.5822410985E+01  0.0000000000E+00  0.0000000000E+00  1.0000000000E+00
 -8.3783727837E+01  0.0000000000E+00  0.0000000000E+00  1.0000000000E+00
 -8.1748397166E+01  0.0000000000E+00  0.0000000000E+00  1.0000000000E+00
 -7.9718638515E+01  0.0000000000E+00  0.0000000000E+00  1.0000000000E+00
 -7.7696647102E+01  0.0000000000E+00  0.0000000000E+00  1.0000000000E+00
 -7.5684584404E+01  0.0000000000E+00  0.0000000000E+00  1.0000000000E+00
 -7.3684569053E+01  0.0000000000E+00  0.0000000000E+00  1.0000000000E+00
 -7.1698668120E+01  0.0000000000E+00  0.0000000000E+00  1.0000000000E+00
 -6.9728888860E+01  0.0000000000E+00  0.0000000000E+00  1.0000000000E+00
 -6.7777170996E+01  0.0000000000E+00  0.0000000000E+00  1.0000000000E+00
 -6.5845379584E+01  0.0000000000E+00  0.0000000000E+00  1.0000000000E+00
 -6.3935298527E+01  0.0000000000E+00  0.0000000000E+00  1.0000000000E+00
 -6.2048624764E+01  0.0000000000E+00  0.0000000000E+00  1.0000000000E+00
 -6.0186963176E+01  0.0000000000E+00  0.0000000000E+00  1.0000000000E+00
 -5.8351822229E+01  0.0000000000E+00  0.0000000000E+00  1.0000000000E+00
 -5.6544610357E+01  0.0000000000E+00  0.0000000000E+00  1.0000000000E+00
 -5.4766633106E+01  0.0000000000E+00  0.0000000000E+00  1.0000000000E+00
 -5.3019091018E+01  0.0000000000E+00  0.0000000000E+00  1.0000000000E+00
 -5.1303078245E+01  0.0000000000E+00  0.0000000000E+00  1.0000000000E+00
 -4.9619581877E+01  0.0000000000E+00  0.0000000000E+00  1.0000000000E+00
 -4.7969481946E+01  0.0000000000E+00  0.0000000000E+00  1.0000000000E+00
 -4.6353552080E+01  0.0000000000E+00  0.0000000000E+00  1.0000000000E+00
 -4.4772460761E+01  0.0000000000E+00  0.0000000000E+00  1.0000000000E+00
 -4.3226773142E+01  0.0000000000E+00  0.0000000000E+00  1.0000000000E+00
 -4.1716953390E+01  0.0000000000E+00  0.0000000000E+00  1.0000000000E+00
 -4.0243367474E+01  0.0000000000E+00  0.0000000000E+00  1.0000000000E+00
 -3.8806286388E+01  0.0000000000E+00  0.0000000000E+00  1.0000000000E+00
 -3.7405889716E+01  0.0000000000E+00  0.0000000000E+00  1.0000000000E+00
 -3.6042269516E+01  0.0000000000E+00  0.0000000000E+00  1.0000000000E+00
 -3.4715434464E+01  0.0000000000E+00  0.0000000000E+00  1.0000000000E+00
 -3.3425314190E+01  0.0000000000E+00  0.0000000000E+00  1.0000000000E+00
 -3.2171763793E+01  0.0000000000E+00  0.0000000000E+00  1.0000000000E+00
 -3.0954568454E+01  0.0000000000E+00  0.0000000000E+00  1.0000000000E+00
 -2.9773448128E+01  0.0000000000E+00  0.0000000000E+00  1.0000000000E+00
 -2.8628062260E+01  0.0000000000E+00  0.0000000000E+00  1.0000000000E+00
 -2.7518014500E+01  0.0000000000E+00  0.0000000000E+00  1.0000000000E+00
 -2.6442857376E+01  0.0000000000E+00  0.0000000000E+00  1.0000000000E+00
 -2.5402096892E+01  0.0000000000E+00  0.0000000000E+00  1.0000000000E+00
 -2.4395197040E+01  0.0000000000E+00  0.0000000000E+00  1.0000000000E+00
 -2.3421584181E+01  0.0000000000E+00  0.0000000000E+00  1.0000000000E+00
 -2.2480651291E+01  0.0000000000E+00  0.0000000000E+00  1.0000000000E+00
 -2.1571762053E+01  0.0000000000E+00  0.0000000000E+00  1.0000000000E+00
 -2.0694254773E+01  0.0000000000E+00  0.0000000000E+00  1.0000000000E+00
 -1.9847446120E+01  0.0000000000E+00  0.0000000000E+00  1.0000000000E+00
 -1.9030634672E+01  0.0000000000E+00  0.0000000000E+00  1.0000000000E+00
 -1.8243104272E+01  0.0000000000E+00  0.0000000000E+00  1.0000000000E+00
 -1.7484127178E+01  0.0000000000E+00  0.0000000000E+00  1.0000000000E+00
 -1.6752967025E+01  0.0000000000E+00  0.0000000000E+00  1.0000000000E+00
 -1.6048881574E+01  0.0000000000E+00  0.0000000000E+00  1.0000000000E+00
 -1.5371125270E+01  0.0000000000E+00  0.0000000000E+00  1.0000000000E+00
 -1.4718951607E+01  0.0000000000E+00  0.0000000000E+00  1.0000000000E+00
 -1.4091615295E+01  0.0000000000E+00  0.0000000000E+00  1.0000000000E+00
 -1.3488374253E+01  0.0000000000E+00  0.0000000000E+00  1.0000000000E+00
 -1.2908491415E+01  0.0000000000E+00  0.0000000000E+00  1.0000000000E+00
 -1.2351236366E+01  0.0000000000E+00  0.0000000000E+00  1.0000000000E+00
 -1.1815886816E+01  0.0000000000E+00  0.0000000000E+00  1.0000000000E+00
 -1.1301729918E+01  0.0000000000E+00  0.0000000000E+00  1.0000000000E+00
 -1.0808063435E+01  0.0000000000E+00  0.0000000000E+00  1.0000000000E+00
 -1.0334196767E+01  0.0000000000E+00  0.0000000000E+00  1.0000000000E+00
 -9.8794518509E+00  0.0000000000E+00  0.0000000000E+00  1.0000000000E+00
 -9.4431639310E+00  0.0000000000E+00  0.0000000000E+00  1.0000000000E+00
 -9.0246822181E+00  0.0000000000E+00  0.0000000000E+00  1.0000000000E+00
 -8.6233704404E+00  0.0000000000E+00  0.0000000000E+00  1.0000000000E+00
 -8.2386072947E+00  0.0000000000E+00  0.0000000000E+00  1.0000000000E+00
 -7.8697868069E+00  0.0000000000E+00  0.0000000000E+00  1.0000000000E+00
 -7.5163186078E+00  0.0000000000E+00  0.0000000000E+00  1.0000000000E+00
 -7.1776281309E+00  0.0000000000E+00  0.0000000000E+00  1.0000000000E+00
 -6.8531567416E+00  0.0000000000E+00  0.0000000000E+00  1.0000000000E+00
 -6.5423618003E+00  0.0000000000E+00  0.0000000000E+00  1.0000000000E+00
 -6.2447166690E+00  0.0000000000E+00  0.0000000000E+00  1.0000000000E+00
 -5.9597106654E+00  0.0000000000E+00  0.0000000000E+00  1.0000000000E+00
 -5.6868489697E+00  0.0000000000E+00  0.0000000000E+00  1.0000000000E+00
 -5.4256524902E+00  0.0000000000E+00  0.0000000000E+00  1.0000000000E+00
 -5.1756576916E+00  0.0000000000E+00  0.0000000000E+00  1.0000000000E+00
 -4.9364163911E+00  0.0000000000E+00  0.0000000000E+00  1.0000000000E+00
 -4.7074955256E+00  0.0000000000E+00  0.0000000000E+00  1.0000000000E+00
 -4.4884768941E+00  0.0000000000E+00  0.0000000000E+00  1.0000000000E+00
 -4.2789568796E+00  0.0000000000E+00  0.0000000000E+00  1.0000000000E+00
 -4.0785461524E+00  0.0000000000E+00  0.0000000000E+00  1.0000000000E+00
 -3.8868693581E+00  0.0000000000E+00  0.0000000000E+00  1.0000000000E+00
 -3.7035647940E+00  0.0000000000E+00  0.0000000000E+00  1.0000000000E+00
 -3.5282840754E+00  0.0000000000E+00  0.0000000000E+00  1.0000000000E+00
 -3.3606917936E+00  0.0000000000E+00  0.0000000000E+00  1.0000000000E+00
 -3.2004651691E+00  0.0000000000E+00  0.0000000000E+00  1.0000000000E+00
 -3.0472937005E+00  0.0000000000E+00  0.0000000000E+00  1.0000000000E+00
 -2.9008788115E+00  0.0000000000E+00  0.0000000000E+00  1.0000000000E+00
 -2.7609334970E+00  0.0000000000E+00  0.0000000000E+00  1.0000000000E+00
 -2.6271819700E+00  0.0000000000E+00  0.0000000000E+00  1.0000000000E+00
 -2.4993593098E+00  0.0000000000E+00  0.0000000000E+00  1.0000000000E+00
 -2.3772111142E+00  0.0000000000E+00  0.0000000000E+00  1.0000000000E+00
 -2.2604931538E+00  0.0000000000E+00  0.0000000000E+00  1.0000000000E+00
 -2.1489710321E+00  0.0000000000E+00  0.0000000000E+00  1.0000000000E+00
 -2.0424198501E+00  0.0000000000E+00  0.0000000000E+00  1.0000000000E+00
 -1.9406238771E+00  0.0000000000E+00  0.0000000000E+00  1.0000000000E+00
 -1.8433762276E+00  0.0000000000E+00  0.0000000000E+00  1.0000000000E+00
 -1.7504785445E+00  0.0000000000E+00  0.0000000000E+00  1.0000000000E+00
 -1.6617406903E+00  0.0000000000E+00  0.0000000000E+00  1.0000000000E+00
 -1.5769804446E+00  0.0000000000E+00  0.0000000000E+00  1.0000000000E+00
 -1.4960232099E+00  0.0000000000E+00  0.0000000000E+00  1.0000000000E+00
 -1.4187017247E+00  0.0000000000E+00  0.0000000000E+00  1.0000000000E+00
 -1.3448557845E+00  0.0000000000E+00  0.0000000000E+00  1.0000000000E+00
 -1.2743319710E+00  0.0000000000E+00  0.0000000000E+00  1.0000000000E+00
 -1.2069833891E+00  0.0000000000E+00  0.0000000000E+00  1.0000000000E+00
 -1.1426694114E+00  0.0000000000E+00  0.0000000000E+00  1.0000000000E+00
 -1.0812554316E+00  0.0000000000E+00  0.0000000000E+00  1.0000000000E+00
 -1.0226126247E+00  0.0000000000E+00  0.0000000000E+00  1.0000000000E+00
 -9.6661771635E-01  0.0000000000E+00  0.0000000000E+00  1.0000000000E+00
 -9.1315275827E-01  0.0000000000E+00  0.0000000000E+00  1.0000000000E+00
 -8.6210491278E-01  0.0000000000E+00  0.0000000000E+00  1.0000000000E+00
 -8.1336624396E-01  0.0000000000E+00  0.0000000000E+00  1.0000000000E+00
 -7.6683351647E-01  0.0000000000E+00  0.0000000000E+00  1.0000000000E+00
 -7.2240800148E-01  0.0000000000E+00  0.0000000000E+00  1.0000000000E+00
 -6.7999528971E-01  0.0000000000E+00  0.0000000000E+00  1.0000000000E+00
 -6.3950511125E-01  0.0000000000E+00  0.0000000000E+00  1.0000000000E+00
 -6.0085116222E-01  0.0000000000E+00  0.0000000000E+00  1.0000000000E+00
 -5.6395093782E-01  0.0000000000E+00  0.0000000000E+00  1.0000000000E+00
 -5.2872557189E-01  0.0000000000E+00  0.0000000000E+00  1.0000000000E+00
 -4.9509968248E-01  0.0000000000E+00  0.0000000000E+00  1.0000000000E+00
 -4.6300122357E-01  0.0000000000E+00  0.0000000000E+00  1.0000000000E+00
 -4.3236134250E-01  0.0000000000E+00  0.0000000000E+00  1.0000000000E+00
 -4.0311424304E-01  0.0000000000E+00  0.0000000000E+00  1.0000000000E+00
 -3.7519705399E-01  0.0000000000E+00  0.0000000000E+00  1.0000000000E+00
 -3.4854970296E-01  0.0000000000E+00  0.0000000000E+00  1.0000000000E+00
 -3.2311479528E-01  0.0000000000E+00  0.0000000000E+00  1.0000000000E+00
 -2.9883749787E-01  0.0000000000E+00  0.0000000000E+00  1.0000000000E+00
 -2.7566542779E-01  0.0000000000E+00  0.0000000000E+00  1.0000000000E+00
 -2.5354854544E-01  0.0000000000E+00  0.0000000000E+00  1.0000000000E+00
 -2.3243905214E-01  0.0000000000E+00  0.0000000000E+00  1.0000000000E+00
 -2.1229129198E-01  0.0000000000E+00  0.0000000000E+00  1.0000000000E+00
 -1.9306165777E-01  0.0000000000E+00  0.0000000000E+00  1.0000000000E+00
 -1.7470850094E-01  0.0000000000E+00  0.0000000000E+00  1.0000000000E+00
 -1.5719204521E-01  0.0000000000E+00  0.0000000000E+00  1.0000000000E+00
 -1.4047430398E-01  0.0000000000E+00  0.0000000000E+00  1.0000000000E+00
 -1.2451900118E-01  0.0000000000E+00  0.0000000000E+00  1.0000000000E+00
 -1.0929149547E-01  0.0000000000E+00  0.0000000000E+00  1.0000000000E+00
 -9.4758707772E-02  0.0000000000E+00  0.0000000000E+00  1.0000000000E+00
 -8.0889051815E-02  0.0000000000E+00  0.0000000000E+00  1.0000000000E+00
 -6.7652367749E-02  0.0000000000E+00  0.0000000000E+00  1.0000000000E+00
 -5.5019858588E-02  0.0000000000E+00  0.0000000000E+00  1.0000000000E+00
 -4.2964029411E-02  0.0000000000E+00  0.0000000000E+00  1.0000000000E+00
 -3.1458629212E-02  0.0000000000E+00  0.0000000000E+00  1.0000000000E+00
 -2.0478595279E-02  0.0000000000E+00  0.0000000000E+00  1.0000000000E+00
 -1.0000000000E-02  0.0000000000E+00  0.0000000000E+00  1.0000000000E+00
  0.0000000000E+00  0.0000000000E+00  0.0000000000E+00  1.0000000000E+00
 -9.9904656496E+01  1.9977261114E+00  0.0000000000E+00  1.0000000000E+00
 -9.7913811984E+01  1.9803925246E+00  0.0000000000E+00  1.0000000000E+00
 -9.5923684093E+01  1.9879891698E+00  0.0000000000E+00  1.0000000000E+00
 -9.3917883428E+01  1.9926366253E+00  0.0000000000E+00  1.0000000000E+00
 -9.1900115612E+01  1.9954862854E+00  0.0000000000E+00  1.0000000000E+00
 -8.9873702410E+01  1.9972379476E+00  0.0000000000E+00  1.0000000000E+00
 -8.7841676627E+01  1.9983170576E+00  0.0000000000E+00  1.0000000000E+00
 -8.5806863500E+01  1.9989836667E+00  0.0000000000E+00  1.0000000000E+00
 -8.3771932342E+01  1.9993968910E+00  0.0000000000E+00  1.0000000000E+00
 -8.1739432319E+01  1.9996543172E+00  0.0000000000E+00  1.0000000000E+00
 -7.9711814777E+01  1.9998158710E+00  0.0000000000E+00  1.0000000000E+00
 -7.7691446490E+01  1.9999183900E+00  0.0000000000E+00  1.0000000000E+00
 -7.5680616534E+01  1.9999845332E+00  0.0000000000E+00  1.0000000000E+00
 -7.3681538891E+01  2.0000282405E+00  0.0000000000E+00  1.0000000000E+00
 -7.1696352158E+01  2.0000580834E+00  0.0000000000E+00  1.0000000000E+00
 -6.9727117442E+01  2.0000793274E+00  0.0000000000E+00  1.0000000000E+00
 -6.7775815123E+01  2.0000952016E+00  0.0000000000E+00  1.0000000000E+00
 -6.5844341035E+01  2.0001076844E+00  0.0000000000E+00  1.0000000000E+00
 -6.3934502430E+01  2.0001179885E+00  0.0000000000E+00  1.0000000000E+00
 -6.2048013992E+01  2.0001268627E+00  0.0000000000E+00  1.0000000000E+00
 -6.0186494109E+01  2.0001347720E+00  0.0000000000E+00  1.0000000000E+00
 -5.8351461537E+01  2.0001420125E+00  0.0000000000E+00  1.0000000000E+00
 -5.6544332565E+01  2.0001487731E+00  0.0000000000E+00  1.0000000000E+00
 -5.4766418733E+01  2.0001551801E+00  0.0000000000E+00  1.0000000000E+00
 -5.3018925168E+01  2.0001613153E+00  0.0000000000E+00  1.0000000000E+00
 -5.1302949523E+01  2.0001672377E+00  0.0000000000E+00  1.0000000000E+00
 -4.9619481568E+01  2.0001729822E+00  0.0000000000E+00  1.0000000000E+00
 -4.7969403385E+01  2.0001785776E+00  0.0000000000E+00  1.0000000000E+00
 -4.6353490168E+01  2.0001840390E+00  0.0000000000E+00  1.0000000000E+00
 -4.4772411600E+01  2.0001893854E+00  0.0000000000E+00  1.0000000000E+00
 -4.3226733752E+01  2.0001946201E+00  0.0000000000E+00  1.0000000000E+00
 -4.1716921492E+01  2.0001997561E+00  0.0000000000E+00  1.0000000000E+00
 -4.0243341328E+01  2.0002047951E+00  0.0000000000E+00  1.0000000000E+00
 -3.8806264667E+01  2.0002097518E+00  0.0000000000E+00  1.0000000000E+00
 -3.7405871402E+01  2.0002146168E+00  0.0000000000E+00  1.0000000000E+00
 -3.6042253836E+01  2.0002194040E+00  0.0000000000E+00  1.0000000000E+00
 -3.4715420821E+01  2.0002240942E+00  0.0000000000E+00  1.0000000000E+00
 -3.3425302140E+01  2.0002287331E+00  0.0000000000E+00  1.0000000000E+00
 -3.2171752987E+01  2.0002332594E+00  0.0000000000E+00  1.0000000000E+00
 -3.0954558636E+01  2.0002377558E+00  0.0000000000E+00  1.0000000000E+00
 -2.9773439094E+01  2.0002421298E+00  0.0000000000E+00  1.0000000000E+00
 -2.8628053869E+01  2.0002465124E+00  0.0000000000E+00  1.0000000000E+00
 -2.7518006635E+01  2.0002507413E+00  0.0000000000E+00  1.0000000000E+00
 -2.6442849957E+01  2.0002550547E+00  0.0000000000E+00  1.0000000000E+00
 -2.5402089847E+01  2.0002591314E+00  0.0000000000E+00  1.0000000000E+00
 -2.4395190330E+01  2.0002632825E+00  0.0000000000E+00  1.0000000000E+00
 -2.3421577767E+01  2.0002674402E+00  0.0000000000E+00  1.0000000000E+00
 -2.2480645142E+01  2.0002710582E+00  0.0000000000E+00  1.0000000000E+00
 -2.1571756163E+01  2.0002753905E+00  0.0000000000E+00  1.0000000000E+00
 -2.0694249120E+01  2.0002790300E+00  0.0000000000E+00  1.0000000000E+00
 -1.9847440705E+01  2.0002829906E+00  0.0000000000E+00  1.0000000000E+00
 -1.9030629506E+01  2.0002881606E+00  0.0000000000E+00  1.0000000000E+00
 -1.8243099323E+01  2.0002908734E+00  0.0000000000E+00  1.0000000000E+00
 -1.7484122474E+01  2.0002962157E+00  0.0000000000E+00  1.0000000000E+00
 -1.6752962499E+01  2.0002962669E+00  0.0000000000E+00  1.0000000000E+00
 -1.6048877260E+01  2.0003007067E+00  0.0000000000E+00  1.0000000000E+00
 -1.5371121080E+01  2.0002987031E+00  0.0000000000E+00  1.0000000000E+00
 -1.4718947617E+01  2.0003046299E+00  0.0000000000E+00  1.0000000000E+00
 -1.4091611604E+01  2.0003149413E+00  0.0000000000E+00  1.0000000000E+00
 -1.3488370904E+01  2.0003284633E+00  0.0000000000E+00  1.0000000000E+00
 -1.2908488463E+01  2.0003510570E+00  0.0000000000E+00  1.0000000000E+00
 -1.2351233529E+01  2.0003542624E+00  0.0000000000E+00  1.0000000000E+00
 -1.1815884070E+01  2.0003268739E+00  0.0000000000E+00  1.0000000000E+00
 -1.1301726586E+01  2.0002735396E+00  0.0000000000E+00  1.0000000000E+00
 -1.0808060076E+01  2.0001992702E+00  0.0000000000E+00  1.0000000000E+00
 -1.0334192853E+01  2.0001383672E+00  0.0000000000E+00  1.0000000000E+00
 -9.8794479984E+00  2.0001254049E+00  0.0000000000E+00  1.0000000000E+00
 -9.4431608830E+00  2.0002166498E+00  0.0000000000E+00  1.0000000000E+00
 -9.0246806671E+00  2.0004207484E+00  0.0000000000E+00  1.0000000000E+00
 -8.6233698377E+00  2.0007078836E+00  0.0000000000E+00  1.0000000000E+00
 -8.2386088413E+00  2.0010300790E+00  0.0000000000E+00  1.0000000000E+00
 -7.8697872767E+00  2.0013044582E+00  0.0000000000E+00  1.0000000000E+00
 -7.5163179852E+00  2.0014487145E+00  0.0000000000E+00  1.0000000000E+00
 -7.1776238123E+00  2.0013690948E+00  0.0000000000E+00  1.0000000000E+00
 -6.8531509290E+00  2.0010443316E+00  0.0000000000E+00  1.0000000000E+00
 -6.5423568293E+00  2.0004589710E+00  0.0000000000E+00  1.0000000000E+00
 -6.2447173591E+00  1.9996354295E+00  0.0000000000E+00  1.0000000000E+00
 -5.9597214750E+00  1.9986979697E+00  0.0000000000E+00  1.0000000000E+00
 -5.6868638769E+00  1.9977464826E+00  0.0000000000E+00  1.0000000000E+00
 -5.4256687298E+00  1.9969297312E+00  0.0000000000E+00  1.0000000000E+00
 -5.1756567119E+00  1.9963493697E+00  0.0000000000E+00  1.0000000000E+00
 -4.9363930948E+00  1.9961191860E+00  0.0000000000E+00  1.0000000000E+00
 -4.7074414794E+00  1.9962867818E+00  0.0000000000E+00  1.0000000000E+00
 -4.4883985745E+00  1.9968868963E+00  0.0000000000E+00  1.0000000000E+00
 -4.2788743982E+00  1.9979028956E+00  0.0000000000E+00  1.0000000000E+00
 -4.0784853551E+00  1.9992872770E+00  0.0000000000E+00  1.0000000000E+00
 -3.8868599729E+00  2.0009739286E+00  0.0000000000E+00  1.0000000000E+00
 -3.7036224443E+00  2.0028388594E+00  0.0000000000E+00  1.0000000000E+00
 -3.5284268884E+00  2.0047783918E+00  0.0000000000E+00  1.0000000000E+00
 -3.3608950715E+00  2.0066433047E+00  0.0000000000E+00  1.0000000000E+00
 -3.2006908120E+00  2.0083586775E+00  0.0000000000E+00  1.0000000000E+00
 -3.0474982806E+00  2.0098087407E+00  0.0000000000E+00  1.0000000000E+00
 -2.9009988947E+00  2.0109617218E+00  0.0000000000E+00  1.0000000000E+00
 -2.7609160408E+00  2.0117511468E+00  0.0000000000E+00  1.0000000000E+00
 -2.6269925702E+00  2.0121836925E+00  0.0000000000E+00  1.0000000000E+00
 -2.4989957261E+00  2.0122433473E+00  0.0000000000E+00  1.0000000000E+00
 -2.3766973683E+00  2.0119634603E+00  0.0000000000E+00  1.0000000000E+00
 -2.2599007137E+00  2.0113690098E+00  0.0000000000E+00  1.0000000000E+00
 -2.1483807280E+00  2.0105048527E+00  0.0000000000E+00  1.0000000000E+00
 -2.0419374336E+00  2.0094208182E+00  0.0000000000E+00  1.0000000000E+00
 -1.9403470334E+00  2.0081639301E+00  0.0000000000E+00  1.0000000000E+00
 -1.8433914312E+00  2.0067914596E+00  0.0000000000E+00  1.0000000000E+00
 -1.7508567084E+00  2.0053420944E+00  0.0000000000E+00  1.0000000000E+00
 -1.6624940074E+00  2.0038713030E+00  0.0000000000E+00  1.0000000000E+00
 -1.5780941272E+00  2.0024054733E+00  0.0000000000E+00  1.0000000000E+00
 -1.4974243639E+00  2.0009909366E+00  0.0000000000E+00  1.0000000000E+00
 -1.4203030897E+00  1.9996417148E+00  0.0000000000E+00  1.0000000000E+00
 -1.3465298529E+00  1.9983952421E+00  0.0000000000E+00  1.0000000000E+00
 -1.2759519390E+00  1.9972565321E+00  0.0000000000E+00  1.0000000000E+00
 -1.2084146339E+00  1.9962507938E+00  0.0000000000E+00  1.0000000000E+00
 -1.1437872049E+00  1.9953728691E+00  0.0000000000E+00  1.0000000000E+00
 -1.0819628453E+00  1.9946358477E+00  0.0000000000E+00  1.0000000000E+00
 -1.0228210311E+00  1.9940285211E+00  0.0000000000E+00  1.0000000000E+00
 -9.6629149689E-01  1.9935548462E+00  0.0000000000E+00  1.0000000000E+00
 -9.1227145839E-01  1.9932005643E+00  0.0000000000E+00  1.0000000000E+00
 -8.6071203038E-01  1.9929626194E+00  0.0000000000E+00  1.0000000000E+00
 -8.1151426346E-01  1.9928261277E+00  0.0000000000E+00  1.0000000000E+00
 -7.6461669297E-01  1.9927836073E+00  0.0000000000E+00  1.0000000000E+00
 -7.1991570795E-01  1.9928213012E+00  0.0000000000E+00  1.0000000000E+00
 -6.7733750239E-01  1.9929291921E+00  0.0000000000E+00  1.0000000000E+00
 -6.3677611188E-01  1.9930958774E+00  0.0000000000E+00  1.0000000000E+00
 -5.9814828299E-01  1.9933108308E+00  0.0000000000E+00  1.0000000000E+00
 -5.6135598048E-01  1.9935654511E+00  0.0000000000E+00  1.0000000000E+00
 -5.2630298723E-01  1.9938496497E+00  0.0000000000E+00  1.0000000000E+00
 -4.9289834166E-01  1.9941574963E+00  0.0000000000E+00  1.0000000000E+00
 -4.6104579978E-01  1.9944802106E+00  0.0000000000E+00  1.0000000000E+00
 -4.3067002224E-01  1.9948141207E+00  0.0000000000E+00  1.0000000000E+00
 -4.0167848528E-01  1.9951518578E+00  0.0000000000E+00  1.0000000000E+00
 -3.7400879113E-01  1.9954914497E+00  0.0000000000E+00  1.0000000000E+00
 -3.4757812004E-01  1.9958270021E+00  0.0000000000E+00  1.0000000000E+00
 -3.2233708500E-01  1.9961577902E+00  0.0000000000E+00  1.0000000000E+00
 -2.9821652202E-01  1.9964791290E+00  0.0000000000E+00  1.0000000000E+00
 -2.7517389659E-01  1.9967911288E+00  0.0000000000E+00  1.0000000000E+00
 -2.5314928229E-01  1.9970902706E+00  0.0000000000E+00  1.0000000000E+00
 -2.3210690412E-01  1.9973772584E+00  0.0000000000E+00  1.0000000000E+00
 -2.1199328917E-01  1.9976495590E+00  0.0000000000E+00  1.0000000000E+00
 -1.9276762852E-01  1.9979083489E+00  0.0000000000E+00  1.0000000000E+00
 -1.7437429694E-01  1.9981520222E+00  0.0000000000E+00  1.0000000000E+00
 -1.5675999529E-01  1.9983821242E+00  0.0000000000E+00  1.0000000000E+00
 -1.3985708399E-01  1.9985980049E+00  0.0000000000E+00  1.0000000000E+00
 -1.2359113244E-01  1.9988015492E+00  0.0000000000E+00  1.0000000000E+00
 -1.0786970502E-01  1.9989929661E+00  0.0000000000E+00  1.0000000000E+00
 -9.2585986910E-02  1.9991742840E+00  0.0000000000E+00  1.0000000000E+00
 -7.7613330597E-02  1.9993465065E+00  0.0000000000E+00  1.0000000000E+00
 -6.2796152115E-02  1.9995117605E+00  0.0000000000E+00  1.0000000000E+00
 -4.7970605968E-02  1.9996713291E+00  0.0000000000E+00  1.0000000000E+00
 -3.3038670591E-02  1.9998256580E+00  0.0000000000E+00  1.0000000000E+00
 -1.8127910079E-02  1.9999718346E+00  0.0000000000E+00  1.0000000000E+00
 -3.6612989835E-03  2.0001035749E+00  0.0000000000E+00  1.0000000000E+00
  9.4786420321E-03  2.0002112447E+00  0.0000000000E+00  1.0000000000E+00
  2.0007715198E-02  2.0002856623E+00  0.0000000000E+00  1.0000000000E+00
 -9.9804780912E+01  4.0904125818E+00  0.0000000000E+00  1.0000000000E+00
 -9.7811063338E+01  4.0390851792E+00  0.0000000000E+00  1.0000000000E+00
 -9.5826357848E+01  4.0385964045E+00  0.0000000000E+00  1.0000000000E+00
 -9.3828671674E+01  4.0458366018E+00  0.0000000000E+00  1.0000000000E+00
 -9.1818251375E+01  4.0540466040E+00  0.0000000000E+00  1.0000000000E+00
 -8.9797521826E+01  4.0612524943E+00  0.0000000000E+00  1.0000000000E+00
 -8.7769468631E+01  4.0670391521E+00  0.0000000000E+00  1.0000000000E+00
 -8.5737140615E+01  4.0714964088E+00  0.0000000000E+00  1.0000000000E+00
 -8.3703493042E+01  4.0748523097E+00  0.0000000000E+00  1.0000000000E+00
 -8.1671346890E+01  4.0773432460E+00  0.0000000000E+00  1.0000000000E+00
 -7.9643386078E+01  4.0791724318E+00  0.0000000000E+00  1.0000000000E+00
 -7.7622166217E+01  4.0805008731E+00  0.0000000000E+00  1.0000000000E+00
 -7.5610125112E+01  4.0814508593E+00  0.0000000000E+00  1.0000000000E+00
 -7.3609591450E+01  4.0821127824E+00  0.0000000000E+00  1.0000000000E+00
 -7.1622790758E+01  4.0825523800E+00  0.0000000000E+00  1.0000000000E+00
 -6.9651849298E+01  4.0828169857E+00  0.0000000000E+00  1.0000000000E+00
 -6.7698795719E+01  4.0829405144E+00  0.0000000000E+00  1.0000000000E+00
 -6.5765561466E+01  4.0829473535E+00  0.0000000000E+00  1.0000000000E+00
 -6.3853979894E+01  4.0828550940E+00  0.0000000000E+00  1.0000000000E+00
 -6.1965784329E+01  4.0826767242E+00  0.0000000000E+00  1.0000000000E+00
 -6.0102606302E+01  4.0824219590E+00  0.0000000000E+00  1.0000000000E+00
 -5.8265973816E+01  4.0820984248E+00  0.0000000000E+00  1.0000000000E+00
 -5.6457309907E+01  4.0817121841E+00  0.0000000000E+00  1.0000000000E+00
 -5.4677930570E+01  4.0812684243E+00  0.0000000000E+00  1.0000000000E+00
 -5.2929043515E+01  4.0807715809E+00  0.0000000000E+00  1.0000000000E+00
 -5.1211747987E+01  4.0802257862E+00  0.0000000000E+00  1.0000000000E+00
 -4.9527035089E+01  4.0796347937E+00  0.0000000000E+00  1.0000000000E+00
 -4.7875787372E+01  4.0790022944E+00  0.0000000000E+00  1.0000000000E+00
 -4.6258779685E+01  4.0783317287E+00  0.0000000000E+00  1.0000000000E+00
 -4.4676681468E+01  4.0776265613E+00  0.0000000000E+00  1.0000000000E+00
 -4.3130058782E+01  4.0768900842E+00  0.0000000000E+00  1.0000000000E+00
 -4.1619375720E+01  4.0761256345E+00  0.0000000000E+00  1.0000000000E+00
 -4.0144997712E+01  4.0753363610E+00  0.0000000000E+00  1.0000000000E+00
 -3.8707195805E+01  4.0745254800E+00  0.0000000000E+00  1.0000000000E+00
 -3.7306149299E+01  4.0736960943E+00  0.0000000000E+00  1.0000000000E+00
 -3.5941949124E+01  4.0728513271E+00  0.0000000000E+00  1.0000000000E+00
 -3.4614603265E+01  4.0719940846E+00  0.0000000000E+00  1.0000000000E+00
 -3.3324040967E+01  4.0711272504E+00  0.0000000000E+00  1.0000000000E+00
 -3.2070116037E+01  4.0702535314E+00  0.0000000000E+00  1.0000000000E+00
 -3.0852612413E+01  4.0693756096E+00  0.0000000000E+00  1.0000000000E+00
 -2.9671249385E+01  4.0684958515E+00  0.0000000000E+00  1.0000000000E+00
 -2.8525685082E+01  4.0676166692E+00  0.0000000000E+00  1.0000000000E+00
 -2.7415521470E+01  4.0667402291E+00  0.0000000000E+00  1.0000000000E+00
 -2.6340310079E+01  4.0658688046E+00  0.0000000000E+00  1.0000000000E+00
 -2.5299555504E+01  4.0650041231E+00  0.0000000000E+00  1.0000000000E+00
 -2.4292719719E+01  4.0641481189E+00  0.0000000000E+00  1.0000000000E+00
 -2.3319227720E+01  4.0633024342E+00  0.0000000000E+00  1.0000000000E+00
 -2.2378470941E+01  4.0624681526E+00  0.0000000000E+00  1.0000000000E+00
 -2.1469810770E+01  4.0616475032E+00  0.0000000000E+00  1.0000000000E+00
 -2.0592583846E+01  4.0608406557E+00  0.0000000000E+00  1.0000000000E+00
 -1.9746105081E+01  4.0600495471E+00  0.0000000000E+00  1.0000000000E+00
 -1.8929670613E+01  4.0592756652E+00  0.0000000000E+00  1.0000000000E+00
 -1.8142562394E+01  4.0585174498E+00  0.0000000000E+00  1.0000000000E+00
 -1.7384050621E+01  4.0577789545E+00  0.0000000000E+00  1.0000000000E+00
 -1.6653396571E+01  4.0570555554E+00  0.0000000000E+00  1.0000000000E+00
 -1.5949855643E+01  4.0563544692E+00  0.0000000000E+00  1.0000000000E+00
 -1.5272680374E+01  4.0556688609E+00  0.0000000000E+00  1.0000000000E+00
 -1.4621121426E+01  4.0550091408E+00  0.0000000000E+00  1.0000000000E+00
 -1.3994431397E+01  4.0543734891E+00  0.0000000000E+00  1.0000000000E+00
 -1.3391866022E+01  4.0537605095E+00  0.0000000000E+00  1.0000000000E+00
 -1.2812685555E+01  4.0531746603E+00  0.0000000000E+00  1.0000000000E+00
 -1.2256157861E+01  4.0525948447E+00  0.0000000000E+00  1.0000000000E+00
 -1.1721558887E+01  4.0520132487E+00  0.0000000000E+00  1.0000000000E+00
 -1.1208172649E+01  4.0514354898E+00  0.0000000000E+00  1.0000000000E+00
 -1.0715295384E+01  4.0508635295E+00  0.0000000000E+00  1.0000000000E+00
 -1.0242232590E+01  4.0503286992E+00  0.0000000000E+00  1.0000000000E+00
 -9.7883038445E+00  4.0498532677E+00  0.0000000000E+00  1.0000000000E+00
 -9.3528411223E+00  4.0494803807E+00  0.0000000000E+00  1.0000000000E+00
 -8.9351915682E+00  4.0492177637E+00  0.0000000000E+00  1.0000000000E+00
 -8.5347170477E+00  4.0490360174E+00  0.0000000000E+00  1.0000000000E+00
 -8.1507968742E+00  4.0489109934E+00  0.0000000000E+00  1.0000000000E+00
 -7.7828226401E+00  4.0487634792E+00  0.0000000000E+00  1.0000000000E+00
 -7.4302060018E+00  4.0485472069E+00  0.0000000000E+00  1.0000000000E+00
 -7.0923717904E+00  4.0481763785E+00  0.0000000000E+00  1.0000000000E+00
 -6.7687633245E+00  4.0476370512E+00  0.0000000000E+00  1.0000000000E+00
 -6.4588369341E+00  4.0469166174E+00  0.0000000000E+00  1.0000000000E+00
 -6.1620665103E+00  4.0460170755E+00  0.0000000000E+00  1.0000000000E+00
 -5.8779352874E+00  4.0450484223E+00  0.0000000000E+00  1.0000000000E+00
 -5.6059390724E+00  4.0440531359E+00  0.0000000000E+00  1.0000000000E+00
 -5.3455940505E+00  4.0431797290E+00  0.0000000000E+00  1.0000000000E+00
 -5.0964222351E+00  4.0424735033E+00  0.0000000000E+00  1.0000000000E+00
 -4.8579812144E+00  4.0420619165E+00  0.0000000000E+00  1.0000000000E+00
 -4.6298312952E+00  4.0419647770E+00  0.0000000000E+00  1.0000000000E+00
 -4.4115671738E+00  4.0422388089E+00  0.0000000000E+00  1.0000000000E+00
 -4.2027926578E+00  4.0428763297E+00  0.0000000000E+00  1.0000000000E+00
 -4.0031269913E+00  4.0438509036E+00  0.0000000000E+00  1.0000000000E+00
 -3.8122010759E+00  4.0451377300E+00  0.0000000000E+00  1.0000000000E+00
 -3.6296434257E+00  4.0466254237E+00  0.0000000000E+00  1.0000000000E+00
 -3.4551148276E+00  4.0482701577E+00  0.0000000000E+00  1.0000000000E+00
 -3.2882435048E+00  4.0499189916E+00  0.0000000000E+00  1.0000000000E+00
 -3.1287018131E+00  4.0515460396E+00  0.0000000000E+00  1.0000000000E+00
 -2.9761679993E+00  4.0530103662E+00  0.0000000000E+00  1.0000000000E+00
 -2.8303254970E+00  4.0543057492E+00  0.0000000000E+00  1.0000000000E+00
 -2.6908962817E+00  4.0553283740E+00  0.0000000000E+00  1.0000000000E+00
 -2.5576041345E+00  4.0560886175E+00  0.0000000000E+00  1.0000000000E+00
 -2.4302221320E+00  4.0565316028E+00  0.0000000000E+00  1.0000000000E+00
 -2.3085003783E+00  4.0566778012E+00  0.0000000000E+00  1.0000000000E+00
 -2.1922494258E+00  4.0565181911E+00  0.0000000000E+00  1.0000000000E+00
 -2.0812359076E+00  4.0560759083E+00  0.0000000000E+00  1.0000000000E+00
 -1.9752658142E+00  4.0553794962E+00  0.0000000000E+00  1.0000000000E+00
 -1.8741247104E+00  4.0544524708E+00  0.0000000000E+00  1.0000000000E+00
 -1.7775923111E+00  4.0533448277E+00  0.0000000000E+00  1.0000000000E+00
 -1.6854779302E+00  4.0520746256E+00  0.0000000000E+00  1.0000000000E+00
 -1.5975219611E+00  4.0507030288E+00  0.0000000000E+00  1.0000000000E+00
 -1.5135433835E+00  4.0492416554E+00  0.0000000000E+00  1.0000000000E+00
 -1.4332860691E+00  4.0477517995E+00  0.0000000000E+00  1.0000000000E+00
 -1.3565871074E+00  4.0462374860E+00  0.0000000000E+00  1.0000000000E+00